integrator              = steep
nsteps                  = 5000
emtol                   = 1000.0
emstep                  = 0.01
cutoff-scheme           = Verlet
nstlist                 = 20
rlist                   = 1.0
coulombtype             = PME
rcoulomb                = 1.0
rvdw                    = 1.0
pbc                     = xyz

