integrator              = md
dt                      = 0.002
nsteps                  = 500000
continuation            = yes
gen-vel                 = no
constraints             = h-bonds
constraint-algorithm    = lincs
cutoff-scheme           = Verlet
nstlist                 = 20
rlist                   = 1.0
coulombtype             = PME
rcoulomb                = 1.0
vdwtype                 = Cut-off
rvdw                    = 1.0
tcoupl                  = v-rescale
tc-grps                 = System
tau-t                   = 1.0
ref-t                   = 300
pcoupl                  = C-rescale
pcoupltype               = isotropic
tau-p                   = 5.0
ref-p                   = 1.0
compressibility         = 4.5e-5
nstxout-compressed      = 5000
nstenergy               = 5000
nstlog                  = 5000
pbc                     = xyz

