integrator              = md
nsteps                  = 0
continuation            = no
constraints             = none
cutoff-scheme           = Verlet
nstlist                 = 20
rlist                   = 1.0
coulombtype             = PME
rcoulomb                = 1.0
vdwtype                 = Cut-off
rvdw                    = 1.0
tcoupl                  = no
pcoupl                  = no
pbc                     = xyz
